                         Program Version 4.2.1 -  RELEASE  -
|  1> !zindo/s tightscf scfconvforced
|  2> %cis nroots 10 dotrans all donto true end
|  3>
|  4> *xyz 0 1
|  5> C 0.3068999946117401 1.3502999544143677 1.5120999813079834
|  6> C 0.25380000472068787 1.6468000411987305 0.21480000019073486
|  7> C -0.13300000131130219 -0.6064000129699707 -0.6705999970436096
|  8> C 0.4528999924659729 -0.052299998700618744 1.972499966621399
|  9> C 0.43459999561309814 1.1699999570846558 -2.1823999881744385
| 10> N -0.18060000240802765 -1.3595999479293823 -1.698099970817566
| 11> N 0.23280000686645508 0.7210000157356262 -0.8131999969482422
| 12> S -0.6007999777793884 -1.169600009918213 0.9672999978065491
| 13> H 0.2921000123023987 2.1458001136779785 2.2421000003814697
| 14> H 0.24529999494552612 2.676100015640259 -0.12129999697208405
| 15> H 1.4833999872207642 -0.40389999747276306 1.9148999452590942
| 16> H 0.1103999987244606 -0.17430000007152557 2.998699903488159
| 17> H 1.173799991607666 0.5437999963760376 -2.670300006866455
| 18> H -0.4893999993801117 1.1033999919891357 -2.7511000633239746
| 19> H 0.7838000059127808 2.1977999210357666 -2.1805999279022217
| 20> H -0.4839000105857849 -2.2936999797821045 -1.452299952507019
| 21> *
| 22>
| 23>                          ****END OF INPUT****

CARTESIAN COORDINATES (ANGSTROEM)
---------------------------------
  C      0.306900    1.350300    1.512100
  C      0.253800    1.646800    0.214800
  C     -0.133000   -0.606400   -0.670600
  C      0.452900   -0.052300    1.972500
  C      0.434600    1.170000   -2.182400
  N     -0.180600   -1.359600   -1.698100
  N      0.232800    0.721000   -0.813200
  S     -0.600800   -1.169600    0.967300
  H      0.292100    2.145800    2.242100
  H      0.245300    2.676100   -0.121300
  H      1.483400   -0.403900    1.914900
  H      0.110400   -0.174300    2.998700
  H      1.173800    0.543800   -2.670300
  H     -0.489400    1.103400   -2.751100
  H      0.783800    2.197800   -2.180600
  H     -0.483900   -2.293700   -1.452300

 Total Charge           Charge          ....    0
 Multiplicity           Mult            ....    1
 Number of Electrons    NEL             ....   44
 Basis Dimension        Dim             ....   40

ORBITAL ENERGIES
----------------

  NO   OCC          E(Eh)            E(eV)
   0   2.0000      -1.711795       -46.5803
   1   2.0000      -1.439103       -39.1600
   2   2.0000      -1.364774       -37.1374
   3   2.0000      -1.131263       -30.7832
   4   2.0000      -1.109706       -30.1966
   5   2.0000      -0.966232       -26.2925
   6   2.0000      -0.888210       -24.1694
   7   2.0000      -0.776914       -21.1409
   8   2.0000      -0.723198       -19.6792
   9   2.0000      -0.678855       -18.4726
  10   2.0000      -0.670196       -18.2370
  11   2.0000      -0.634827       -17.2745
  12   2.0000      -0.626697       -17.0533
  13   2.0000      -0.561092       -15.2681
  14   2.0000      -0.539644       -14.6845
  15   2.0000      -0.509412       -13.8618
  16   2.0000      -0.501729       -13.6527
  17   2.0000      -0.480869       -13.0851
  18   2.0000      -0.408454       -11.1146
  19   2.0000      -0.390352       -10.6220
  20   2.0000      -0.379043       -10.3143
  21   2.0000      -0.310004        -8.4356
  22   0.0000       0.025225         0.6864
  23   0.0000       0.051002         1.3878
  24   0.0000       0.077519         2.1094
  25   0.0000       0.093292         2.5386
  26   0.0000       0.120286         3.2731

MULLIKEN ATOMIC CHARGES
-----------------------
   0 C :   -0.100889
   1 C :    0.046136
   2 C :    0.444802
   3 C :   -0.029986
   4 C :   -0.038691
   5 N :   -0.581521
   6 N :   -0.310760
   7 S :   -0.154163
   8 H :    0.079051
   9 H :    0.085452
  10 H :    0.087984
  11 H :    0.071626
  12 H :    0.081918
  13 H :    0.079423
  14 H :    0.058456
  15 H :    0.181160
Sum of atomic charges:    0.0000000

LOEWDIN ATOMIC CHARGES
----------------------
   0 C :   -0.077531
   1 C :    0.043960
   2 C :    0.338202
   3 C :    0.036941
   4 C :    0.038762
   5 N :   -0.481973
   6 N :   -0.161859
   7 S :   -0.116276
   8 H :    0.038550
   9 H :    0.042185
  10 H :    0.046532
  11 H :    0.031189
  12 H :    0.039403
  13 H :    0.037565
  14 H :    0.021986
  15 H :    0.122363

  Mayer bond orders larger than 0.100000
B(  0-C ,  1-C ) :   1.8398 B(  0-C ,  3-C ) :   0.9738 B(  0-C ,  8-H ) :   0.9460
B(  1-C ,  6-N ) :   1.0023 B(  1-C ,  9-H ) :   0.9495 B(  2-C ,  5-N ) :   1.7400
B(  2-C ,  6-N ) :   1.0920 B(  2-C ,  7-S ) :   0.9826 B(  3-C ,  7-S ) :   0.9553
B(  3-C , 10-H ) :   0.9567 B(  3-C , 11-H ) :   0.9627 B(  4-C ,  6-N ) :   0.9360
B(  4-C , 12-H ) :   0.9655 B(  4-C , 13-H ) :   0.9672 B(  4-C , 14-H ) :   0.9627
B(  5-N , 15-H ) :   0.9475

-----------------------------------------------------------------------------
    TRANSIENT ABSORPTION SPECTRUM VIA TRANSITION ELECTRIC DIPOLE MOMENTS
-----------------------------------------------------------------------------
State   Energy  Wavelength   fosc         T2         TX        TY        TZ
        (cm-1)    (nm)                  (au**2)     (au)      (au)      (au)
-----------------------------------------------------------------------------
  10   60800.5    164.5   3.803356132   1.58045  -0.38071  -1.16156  -0.29373

FINAL SINGLE POINT ENERGY        -3.750996552648

DIPOLE MOMENT
-------------
                                X             Y             Z
Electronic contribution:    -18.60425     -37.24074      19.40686
Nuclear contribution   :      9.24618      17.17749     -12.75231
                        -----------------------------------------
Total Dipole Moment    :     -9.35807     -20.06326       6.65456
                        -----------------------------------------
Magnitude (a.u.)       :     23.11689
Magnitude (Debye)      :     58.75848

Rotational constants in cm-1:     0.085511     0.062429     0.037712
Rotational constants in MHz :  2563.556631  1871.574971  1130.571471

                             ****ORCA TERMINATED NORMALLY****
TOTAL RUN TIME: 0 days 0 hours 0 minutes 0 seconds 568 msec
