                         Program Version 4.2.1 -  RELEASE  -
|  1> !zindo/s tightscf
|  2> %output Print[P_OVERLAP] 1 end
|  3> %cis nroots 20 dotrans all donto true triplets true end
|  4> *xyz 0 1
|  5>   C   1.82868189498644     -1.12568448671555     -0.11668508576230
|  6>   C   0.86073330841555     -0.38750890026130      0.54700557220456
|  7>   C   2.82457707278590     -1.77413785804051      0.60333732140804
|  8>   C   0.88748656122741     -0.29675789586408      1.93081821192431
|  9>   C   2.85051088582409     -1.68337170150631      1.98337718013689
| 10>   C   1.88183259800218     -0.94380310813381      2.65779697676493
| 11>   C   1.95012783005334     -0.87542052659737      4.15436663216222
| 12>   C   0.90161026641721     -0.07366951716518      4.88772760132817
| 13>   O   2.82617692482010     -1.45104219459857      4.75837980334316
| 14>   H   1.80813085503021     -1.19657204492586     -1.19477572316912
| 15>   H   0.08569654239513      0.11716212974510     -0.01115396027159
| 16>   H   3.57875121772189     -2.34921084889001      0.08595121337892
| 17>   H   0.12925020320207      0.28032533530661      2.43853666479911
| 18>   H   3.61421515995847     -2.17883879290430      2.56371628941295
| 19>   H   -0.09247172191325     -0.47103053572633      4.68627203668800
| 20>   H   0.91342593248451      0.96467512277121      4.55915523024135
| 21>   H   1.10576446858875     -0.12361417649373      5.95157403541037
| 22> *
| 23>
| 24>
| 25>                          ****END OF INPUT****

CARTESIAN COORDINATES (ANGSTROEM)
---------------------------------
  C      1.828682   -1.125684   -0.116685
  C      0.860733   -0.387509    0.547006
  C      2.824577   -1.774138    0.603337
  C      0.887487   -0.296758    1.930818
  C      2.850511   -1.683372    1.983377
  C      1.881833   -0.943803    2.657797
  C      1.950128   -0.875421    4.154367
  C      0.901610   -0.073670    4.887728
  O      2.826177   -1.451042    4.758380
  H      1.808131   -1.196572   -1.194776
  H      0.085697    0.117162   -0.011154
  H      3.578751   -2.349211    0.085951
  H      0.129250    0.280325    2.438537
  H      3.614215   -2.178839    2.563716
  H     -0.092472   -0.471031    4.686272
  H      0.913426    0.964675    4.559155
  H      1.105764   -0.123614    5.951574

 Total Charge           Charge          ....    0
 Multiplicity           Mult            ....    1
 Number of Electrons    NEL             ....   46
 Basis Dimension        Dim             ....   44

ORBITAL ENERGIES
----------------

  NO   OCC          E(Eh)            E(eV)
   0   2.0000      -1.675073       -45.5811
   1   2.0000      -1.579752       -42.9872
   2   2.0000      -1.312670       -35.7196
   3   2.0000      -1.237604       -33.6769
   4   2.0000      -1.194018       -32.4909
   5   2.0000      -0.985829       -26.8258
   6   2.0000      -0.942648       -25.6507
   7   2.0000      -0.903657       -24.5897
   8   2.0000      -0.748394       -20.3648
   9   2.0000      -0.682256       -18.5651
  10   2.0000      -0.658370       -17.9152
  11   2.0000      -0.645713       -17.5707
  12   2.0000      -0.625038       -17.0081
  13   2.0000      -0.580549       -15.7975
  14   2.0000      -0.571916       -15.5626
  15   2.0000      -0.533266       -14.5109
  16   2.0000      -0.521793       -14.1987
  17   2.0000      -0.479369       -13.0443
  18   2.0000      -0.475414       -12.9367
  19   2.0000      -0.466151       -12.6846
  20   2.0000      -0.383030       -10.4228
  21   2.0000      -0.350873        -9.5478
  22   2.0000      -0.349342        -9.5061
  23   0.0000      -0.021357        -0.5811
  24   0.0000       0.015017         0.4086
  25   0.0000       0.044975         1.2238
  26   0.0000       0.082615         2.2481
  27   0.0000       0.104065         2.8318

------------------
MOLECULAR ORBITALS
------------------
                      0         1         2         3         4         5
                  -1.67507  -1.57975  -1.31267  -1.23760  -1.19402  -0.98583
                   2.00000   2.00000   2.00000   2.00000   2.00000   2.00000
                  --------  --------  --------  --------  --------  --------
  0C   1s         0.253374 -0.280626  0.188730 -0.340498  0.220465 -0.372154
  0C   1pz        0.112409 -0.108148  0.021913  0.010693 -0.018137  0.175963
  0C   1px        0.002036  0.000112  0.061523  0.115860  0.142418  0.020484
  0C   1py        0.007451 -0.008639 -0.041851 -0.081223 -0.102320 -0.000557
  1C   1s         0.261386 -0.270077 -0.045165 -0.432554 -0.202931  0.074708
  1C   1pz        0.065595 -0.045402 -0.097872  0.062927 -0.133992  0.265048
  1C   1px        0.078888 -0.080818  0.055444 -0.019054  0.060920 -0.094972
  1C   1py       -0.050689  0.053647 -0.047027  0.018470 -0.053759  0.088291
  2C   1s         0.262641 -0.255082  0.273996  0.090121  0.391484  0.115354
  2C   1pz        0.063624 -0.032083  0.009910  0.180376 -0.049684  0.250204
  2C   1px       -0.076592  0.080318 -0.018144  0.084963  0.004491  0.104888
  2C   1py        0.059280 -0.059437  0.013627 -0.045921 -0.007108 -0.054484
  3C   1s         0.309166 -0.204526 -0.318639 -0.081327 -0.323972  0.193981
  3C   1pz       -0.023242  0.091699 -0.110462  0.190230  0.062766 -0.200935
  3C   1px        0.090948 -0.056685 -0.000409  0.098773 -0.010001 -0.087350
  3C   1py       -0.066312  0.047414 -0.008446 -0.054921  0.012120  0.046019
  4C   1s         0.324739 -0.153622  0.175971  0.429954  0.082700  0.174291
  4C   1pz       -0.014805  0.120063 -0.071168  0.063166 -0.174171 -0.215572
  4C   1px       -0.094899  0.057484  0.033944 -0.030327  0.075539  0.073483
  4C   1py        0.066013 -0.031272 -0.029714  0.026457 -0.067253 -0.069052
  5C   1s         0.399874 -0.058496 -0.195259  0.353065 -0.199897 -0.267279
  5C   1pz       -0.041646  0.198245 -0.053187  0.003295  0.039828 -0.262854
  5C   1px        0.013244  0.034164  0.165961  0.108304  0.034461 -0.014158
  5C   1py       -0.012806 -0.008673 -0.121826 -0.076497 -0.021182 -0.010576
  6C   1s         0.369070  0.398788 -0.118261  0.015708  0.046127 -0.207364
  6C   1pz        0.002485  0.138509  0.100092 -0.228309  0.125296  0.306196
  6C   1px        0.072548  0.138085  0.272545 -0.034082 -0.168261  0.043211
  6C   1py       -0.051444 -0.087386 -0.185725  0.006472  0.129262 -0.006843
  7C   1s         0.168545  0.185565 -0.427220 -0.091811  0.446498  0.124469
  7C   1pz       -0.036956 -0.011214  0.087412 -0.038986  0.018751  0.125249
  7C   1px        0.048929  0.071977  0.007516 -0.024817  0.005609 -0.020304
  7C   1py       -0.037668 -0.052056  0.001585  0.014618 -0.002759  0.024163
  8O   1s         0.349825  0.531511  0.333452 -0.189012 -0.142887  0.151485
  8O   1pz       -0.081388 -0.096515 -0.066208 -0.042619  0.071611  0.104556
  8O   1px       -0.098833 -0.151377 -0.044939  0.058754 -0.008760 -0.021446
  8O   1py        0.063899  0.100074  0.026832 -0.045067  0.011789  0.023418
  9H   1s         0.065858 -0.080659  0.080316 -0.168732  0.119056 -0.292755
 10H   1s         0.069069 -0.076816 -0.027787 -0.215146 -0.098579  0.021689
 11H   1s         0.069011 -0.071141  0.119172  0.042272  0.206621  0.047973
 12H   1s         0.098023 -0.040338 -0.201180 -0.046670 -0.116707  0.095865
 13H   1s         0.108284 -0.005725  0.091469  0.203010  0.030148  0.068298
 14H   1s         0.068025  0.061055 -0.219350 -0.028835  0.202543  0.051656
 15H   1s         0.068114  0.060603 -0.220373 -0.028351  0.202047  0.050789
 16H   1s         0.066605  0.091517 -0.149366 -0.070235  0.218471  0.136631
                      6         7         8         9        10        11
                  -0.94265  -0.90366  -0.74839  -0.68226  -0.65837  -0.64571
                   2.00000   2.00000   2.00000   2.00000   2.00000   2.00000
                  --------  --------  --------  --------  --------  --------
  0C   1s        -0.004504  0.050083  0.118498  0.081817 -0.101599 -0.000268
  0C   1pz       -0.009586  0.217713 -0.183701 -0.161915  0.308580  0.000565
  0C   1px       -0.271336  0.003612  0.089423 -0.261326 -0.074961 -0.019765
  0C   1py        0.191434  0.014690 -0.077864  0.172348  0.077521 -0.026749
  1C   1s         0.285708 -0.148987 -0.142319 -0.079673  0.141678 -0.000053
  1C   1pz       -0.204105  0.075998  0.055372 -0.274145 -0.132572  0.002808
  1C   1px       -0.017883  0.263974 -0.005844  0.131428  0.037860 -0.028458
  1C   1py       -0.003498 -0.180952  0.008598 -0.114696 -0.037325 -0.039378
  2C   1s        -0.280362 -0.151762 -0.090115 -0.113791  0.145335 -0.000182
  2C   1pz        0.205153  0.055645 -0.151036  0.302914  0.069243  0.002592
  2C   1px       -0.000321 -0.258162 -0.053607  0.090999  0.026909 -0.022735
  2C   1py        0.016441  0.187292  0.026034 -0.040393 -0.013627 -0.035094
  3C   1s        -0.296694 -0.097108  0.122640  0.049252 -0.159728  0.000607
  3C   1pz       -0.192586 -0.032392  0.087696  0.350842 -0.010358  0.007072
  3C   1px        0.002064  0.277006 -0.076958  0.098261  0.066091 -0.055697
  3C   1py       -0.016673 -0.198768  0.061660 -0.041526 -0.047607 -0.081295
  4C   1s         0.301705 -0.112731  0.034754  0.131958 -0.137825 -0.000116
  4C   1pz        0.194820 -0.051298  0.223783 -0.170802 -0.206811  0.005228
  4C   1px        0.019990 -0.270351 -0.021867  0.165116 -0.023099 -0.045353
  4C   1py        0.001215  0.187523  0.033200 -0.130204 -0.000133 -0.064656
  5C   1s        -0.007335  0.094875  0.032977 -0.029486  0.002347  0.000791
  5C   1pz        0.004054 -0.277504 -0.127367 -0.143272  0.204290  0.009811
  5C   1px        0.272427 -0.014779  0.063736 -0.241971 -0.058747 -0.097783
  5C   1py       -0.192675 -0.011394 -0.054989  0.160746  0.057480 -0.135687
  6C   1s        -0.030699 -0.083659 -0.378361 -0.107003 -0.019850 -0.001092
  6C   1pz       -0.021587  0.145896 -0.101694  0.125547 -0.280073  0.021679
  6C   1px       -0.002939  0.010990  0.193923 -0.126701  0.022353 -0.197877
  6C   1py        0.000511  0.003444 -0.145442  0.100384 -0.038229 -0.278251
  7C   1s         0.175061  0.075680  0.106134 -0.042836  0.015763 -0.000303
  7C   1pz        0.101003  0.105504  0.171143 -0.153655 -0.241704  0.041065
  7C   1px       -0.044278  0.016439 -0.358150  0.047047 -0.289400 -0.365399
  7C   1py        0.039016 -0.003723  0.268337 -0.043697  0.186144 -0.515126
  8O   1s        -0.129439  0.063984  0.261518  0.246606  0.209271  0.001165
  8O   1pz       -0.045144  0.083709 -0.039938  0.260887 -0.086281  0.016825
  8O   1px        0.015509 -0.026851  0.211513  0.124235  0.240468 -0.145704
  8O   1py       -0.014469  0.025556 -0.153238 -0.067621 -0.178142 -0.206971
  9H   1s        -0.000950 -0.111670  0.196826  0.162488 -0.300778  0.001142
 10H   1s         0.218021 -0.274900 -0.087857 -0.044703  0.092763  0.000417
 11H   1s        -0.208628 -0.270575 -0.029684 -0.105257  0.068420  0.001180
 12H   1s        -0.207310 -0.251886  0.169340  0.083762 -0.114272 -0.000873
 13H   1s         0.220693 -0.246482  0.089780  0.130041 -0.150695  0.000239
 14H   1s         0.081524  0.007623  0.200701 -0.013911  0.196370  0.431778
 15H   1s         0.080291  0.005899  0.203233 -0.010530  0.201231 -0.426923
 16H   1s         0.134240  0.106583  0.116466 -0.116439 -0.235023 -0.004092
                     12        13        14        15        16        17
                  -0.62504  -0.58055  -0.57192  -0.53327  -0.52179  -0.47937
                   2.00000   2.00000   2.00000   2.00000   2.00000   2.00000
                  --------  --------  --------  --------  --------  --------
  0C   1s         0.156731 -0.032289 -0.006654  0.047065  0.000333  0.008539
  0C   1pz        0.162547 -0.080943 -0.028059  0.246544 -0.020047  0.348588
  0C   1px        0.058058  0.212469 -0.120668  0.037713  0.192483 -0.014560
  0C   1py       -0.028473 -0.156940  0.082831 -0.009547  0.271797  0.040833
  1C   1s        -0.080340 -0.053205 -0.056796 -0.009468 -0.000190  0.021582
  1C   1pz        0.134031 -0.159572 -0.239551 -0.179490 -0.023557 -0.313280
  1C   1px        0.190301 -0.317615  0.012204  0.024111  0.197914  0.056549
  1C   1py       -0.124415  0.212274 -0.028096 -0.033858  0.278770 -0.062197
  2C   1s        -0.073427  0.048385  0.051494  0.060346  0.000431  0.000085
  2C   1pz        0.097351  0.118574  0.242355  0.030380 -0.021358 -0.372228
  2C   1px       -0.283265 -0.192643  0.046702 -0.162521  0.194370 -0.007666
  2C   1py        0.208021  0.145861 -0.014373  0.115143  0.276300 -0.021514
  3C   1s         0.047334 -0.107348  0.026553 -0.007430  0.000227 -0.029487
  3C   1pz       -0.068445  0.126402  0.267056  0.175516 -0.021846  0.286458
  3C   1px       -0.272103 -0.149593 -0.042819 -0.150955  0.208002 -0.022546
  3C   1py        0.186861  0.115970  0.050855  0.117840  0.295993  0.040607
  4C   1s         0.110857  0.090406 -0.020300 -0.025382 -0.000189 -0.006830
  4C   1pz       -0.001861 -0.120259 -0.266199 -0.073045 -0.023833  0.363858
  4C   1px        0.143496 -0.288365 -0.083467  0.075424  0.207509  0.007774
  4C   1py       -0.102377  0.194894  0.037438 -0.061846  0.291966  0.024835
  5C   1s        -0.257462  0.045385  0.012079  0.006902  0.000117  0.032848
  5C   1pz        0.132869 -0.101767 -0.023171  0.224656 -0.024840 -0.213301
  5C   1px        0.093070  0.198033 -0.059719 -0.024386  0.235127  0.032131
  5C   1py       -0.056415 -0.148274  0.039408  0.031797  0.332465 -0.039029
  6C   1s         0.112407 -0.021453 -0.002005 -0.003251 -0.000038 -0.102167
  6C   1pz        0.027557  0.084731  0.025485 -0.236798 -0.013706  0.209658
  6C   1px       -0.006179 -0.103820  0.310358 -0.058568  0.113675  0.025530
  6C   1py        0.004780  0.079774 -0.219602  0.022173  0.159467 -0.006855
  7C   1s        -0.020712 -0.009559 -0.032093 -0.021156 -0.000413 -0.009200
  7C   1pz       -0.276364 -0.176298  0.173141  0.432000  0.018197 -0.094984
  7C   1px       -0.044551  0.034156 -0.170880  0.167703 -0.142148 -0.003925
  7C   1py        0.007195 -0.038828  0.134642 -0.084003 -0.201394 -0.002818
  8O   1s        -0.102547  0.099442 -0.275398  0.102915  0.000273 -0.042692
  8O   1pz       -0.142498  0.214710 -0.344785  0.036530 -0.016943  0.161908
  8O   1px       -0.068686  0.037656 -0.357690  0.228556  0.151721 -0.183840
  8O   1py        0.036262 -0.010758  0.226371 -0.160634  0.211751  0.133792
  9H   1s        -0.057710  0.061355  0.018838 -0.206791 -0.001253 -0.341876
 10H   1s        -0.258245  0.336710  0.062178  0.048121  0.000268  0.100425
 11H   1s        -0.330774 -0.213134 -0.041253 -0.146788 -0.000890  0.178507
 12H   1s         0.257956  0.155635  0.177693  0.196720  0.001548  0.161616
 13H   1s         0.178042 -0.264449 -0.202607  0.030830 -0.000056  0.163508
 14H   1s         0.071856  0.015526  0.053701 -0.193021  0.176568  0.027866
 15H   1s         0.072690  0.016659  0.053641 -0.198660 -0.176168  0.032119
 16H   1s        -0.240903 -0.139648  0.093712  0.408466  0.000216 -0.083659
                     18        19        20        21        22        23
                  -0.47542  -0.46615  -0.38303  -0.35087  -0.34934  -0.02136
                   2.00000   2.00000   2.00000   2.00000   2.00000   0.00000
                  --------  --------  --------  --------  --------  --------
  0C   1s         0.000055 -0.002384  0.016214 -0.000005 -0.000012 -0.000035
  0C   1pz        0.020155 -0.032822 -0.005562  0.028645 -0.020870  0.027126
  0C   1px       -0.150512 -0.275598  0.014110 -0.256064  0.186613 -0.242574
  0C   1py       -0.212294  0.192266 -0.010606 -0.361453  0.263474 -0.342500
  1C   1s         0.000104  0.003679  0.025260  0.000002 -0.000019  0.000066
  1C   1pz        0.012319  0.027099  0.078011 -0.004554 -0.036570 -0.006281
  1C   1px       -0.139034  0.248966  0.011608  0.040728  0.326219  0.056641
  1C   1py       -0.197130 -0.174570 -0.002238  0.057439  0.460614  0.079975
  2C   1s         0.000015 -0.000829  0.005723  0.000060 -0.000008 -0.000052
  2C   1pz        0.010719  0.038432  0.039128  0.034069  0.015124 -0.011408
  2C   1px       -0.128044  0.255637 -0.026022 -0.304384 -0.135695  0.101559
  2C   1py       -0.180518 -0.178262  0.021519 -0.429707 -0.191645  0.143396
  3C   1s        -0.000149 -0.014991 -0.029147  0.000116  0.000012 -0.000074
  3C   1pz        0.013868 -0.072737 -0.099999 -0.033272 -0.015048 -0.022791
  3C   1px       -0.095854 -0.272751 -0.031411  0.297377  0.135152  0.203585
  3C   1py       -0.135119  0.187083  0.014240  0.419969  0.190801  0.287351
  4C   1s        -0.000099  0.002694 -0.003643 -0.000076 -0.000009  0.000124
  4C   1pz        0.012200 -0.003732 -0.054537  0.006257  0.035678 -0.019273
  4C   1px       -0.078386 -0.274106  0.080674 -0.057159 -0.319489  0.173383
  4C   1py       -0.110704  0.193800 -0.061266 -0.080762 -0.450719  0.244811
  5C   1s         0.000251  0.011146  0.088477  0.000158 -0.000061 -0.000146
  5C   1pz       -0.000072  0.039059  0.247063 -0.028267  0.022549  0.022120
  5C   1px       -0.021614  0.308277 -0.011234  0.256528 -0.203844 -0.198953
  5C   1py       -0.030624 -0.215461  0.027513  0.362075 -0.287843 -0.280927
  6C   1s        -0.001081  0.017983  0.009070  0.000032 -0.000008  0.000007
  6C   1pz       -0.021396 -0.037225 -0.245993 -0.002142  0.001696  0.034473
  6C   1px        0.216979 -0.076519  0.102893  0.019087 -0.015794 -0.315293
  6C   1py        0.304491  0.051850 -0.092404  0.026790 -0.022088 -0.443560
  7C   1s        -0.000183  0.000122 -0.087737 -0.000123 -0.000008 -0.000039
  7C   1pz        0.010633 -0.005247  0.098348  0.002829 -0.000801 -0.002773
  7C   1px       -0.111800  0.061541 -0.178976 -0.022319  0.006574  0.025509
  7C   1py       -0.156607 -0.044650  0.134255 -0.031769  0.009195  0.035575
  8O   1s        -0.000494  0.050490 -0.001331 -0.000005 -0.000002 -0.000011
  8O   1pz       -0.045770  0.134856  0.740040  0.012903 -0.011037 -0.023508
  8O   1px        0.427715  0.075395 -0.319290 -0.119199  0.104467  0.214552
  8O   1py        0.606178 -0.042441  0.284632 -0.167849  0.147167  0.301710
  9H   1s        -0.003268  0.024211  0.010751 -0.000010 -0.000009  0.000024
 10H   1s         0.001320 -0.273120 -0.047903 -0.000056  0.000044 -0.000016
 11H   1s         0.001540  0.253012 -0.056525 -0.000055  0.000055  0.000041
 12H   1s         0.001521  0.248884 -0.038945 -0.000023  0.000018 -0.000041
 13H   1s         0.001707 -0.275616  0.019418 -0.000056  0.000007 -0.000030
 14H   1s         0.154741 -0.030930  0.065116  0.021650 -0.009050 -0.076933
 15H   1s        -0.151621 -0.031936  0.065535 -0.021435  0.008955  0.075966
 16H   1s        -0.003052  0.009626  0.031354 -0.000093  0.000070  0.000937
                     24        25        26        27        28        29
                   0.01502   0.04498   0.08262   0.10407   0.10982   0.12797
                   0.00000   0.00000   0.00000   0.00000   0.00000   0.00000
                  --------  --------  --------  --------  --------  --------
  0C   1s         0.000003  0.000057  0.144824 -0.000663  0.422981 -0.244565
  0C   1pz        0.003759  0.029151  0.044610 -0.023727  0.030288 -0.006262
  0C   1px       -0.033554 -0.260243 -0.005678  0.211092 -0.019176 -0.143475
  0C   1py       -0.047405 -0.367306  0.009074  0.298067  0.016165  0.101047
  1C   1s         0.000058 -0.000332 -0.224525  0.000592 -0.345216 -0.146909
  1C   1pz       -0.033947 -0.018151 -0.064912  0.023499  0.031837 -0.176378
  1C   1px        0.303710  0.160232 -0.014135 -0.210138 -0.061431  0.077703
  1C   1py        0.428812  0.226210  0.003637 -0.296894  0.045764 -0.068863
  2C   1s        -0.000011 -0.000086 -0.192772  0.000752 -0.264910  0.427626
  2C   1pz        0.030203 -0.020190 -0.048761  0.025103  0.063012 -0.013114
  2C   1px       -0.270842  0.180427  0.014591 -0.224528  0.074985 -0.006575
  2C   1py       -0.382369  0.254730 -0.015700 -0.316823 -0.048337  0.003759
  3C   1s        -0.000142  0.000564  0.322473 -0.000481  0.187411  0.410007
  3C   1pz        0.031109 -0.004744  0.047190 -0.024632 -0.123239  0.029774
  3C   1px       -0.278478  0.044208  0.093194  0.220946 -0.063029 -0.020636
  3C   1py       -0.393167  0.062161 -0.061609  0.312231  0.035221  0.016623
  4C   1s         0.000071  0.000172  0.272452 -0.000675  0.100977 -0.192898
  4C   1pz       -0.033093 -0.002570  0.041283 -0.026683 -0.103651  0.162858
  4C   1px        0.296892  0.023871 -0.095646  0.240198  0.037825 -0.063538
  4C   1py        0.418960  0.033924  0.072078  0.338689 -0.034753  0.057678
  5C   1s         0.000049 -0.000694 -0.496528  0.000735  0.108839 -0.174671
  5C   1pz        0.001025  0.025184 -0.100430  0.028930  0.196596  0.041820
  5C   1px       -0.009392 -0.229429  0.014950 -0.260305  0.021431  0.153215
  5C   1py       -0.013150 -0.323851 -0.018823 -0.367448 -0.000092 -0.104707
  6C   1s        -0.000074  0.000550  0.416141 -0.000648 -0.302820 -0.034744
  6C   1pz        0.001367 -0.037711 -0.139690 -0.013809 -0.016683 -0.111334
  6C   1px       -0.012207  0.341767 -0.047258  0.127251  0.067674  0.048774
  6C   1py       -0.017239  0.480967  0.022384  0.178890 -0.049258 -0.043908
  7C   1s         0.000147 -0.000086 -0.233655  0.000513  0.345989  0.275707
  7C   1pz       -0.000931  0.001362  0.097062 -0.000050 -0.069150 -0.003025
  7C   1px        0.007028 -0.012489 -0.117492 -0.000819  0.072493 -0.006738
  7C   1py        0.010149 -0.016951  0.091178 -0.001566 -0.056518  0.005045
  8O   1s         0.000025 -0.000069 -0.057616  0.000090  0.051754  0.002130
  8O   1pz       -0.000779  0.019633  0.086849  0.005637 -0.040216  0.044889
  8O   1px        0.006408 -0.176735  0.090730 -0.052069 -0.079284 -0.021683
  8O   1py        0.009058 -0.248794 -0.057602 -0.072969  0.053219  0.019136
  9H   1s        -0.000019 -0.000024 -0.078753  0.000379 -0.275700  0.148910
 10H   1s        -0.000035  0.000221  0.152594 -0.000380  0.187932  0.082720
 11H   1s        -0.000014  0.000101  0.135304 -0.000488  0.139102 -0.274803
 12H   1s         0.000070 -0.000170 -0.158736  0.000281 -0.154870 -0.278427
 13H   1s        -0.000060 -0.000040 -0.128780  0.000345 -0.098855  0.109673
 14H   1s        -0.002718  0.078745  0.087309  0.028745 -0.153644 -0.141784
 15H   1s         0.002471 -0.077738  0.087479 -0.028778 -0.154298 -0.142269
 16H   1s         0.000029 -0.000914  0.084195 -0.000570 -0.155346 -0.154966
                     30        31        32        33        34        35
                   0.13560   0.17143   0.19042   0.20188   0.24023   0.24392
                   0.00000   0.00000   0.00000   0.00000   0.00000   0.00000
                  --------  --------  --------  --------  --------  --------
  0C   1s         0.214853  0.014612  0.331921  0.043227  0.000165  0.057251
  0C   1pz       -0.007925  0.065208 -0.310399 -0.063130 -0.000222 -0.056663
  0C   1px       -0.131325 -0.001323  0.023125 -0.184684  0.000307  0.003169
  0C   1py        0.092397  0.006125 -0.041004  0.125800  0.000618 -0.006726
  1C   1s        -0.356896 -0.095007  0.238336 -0.201175  0.000003  0.021117
  1C   1pz        0.067202  0.140811  0.006688  0.196969  0.000747  0.052078
  1C   1px        0.002386  0.044502 -0.228812  0.074073 -0.001463 -0.041527
  1C   1py        0.003679 -0.020408  0.162586 -0.036875 -0.002224  0.033514
  2C   1s         0.147035 -0.090497  0.158688  0.282367  0.000151  0.014344
  2C   1pz        0.173588  0.123532  0.082640 -0.211470  0.000049  0.084895
  2C   1px        0.076947 -0.035610  0.193130  0.140326  0.000646  0.032382
  2C   1py       -0.040857  0.034977 -0.130223 -0.116083  0.000608 -0.016243
  3C   1s         0.031483 -0.244700 -0.021783 -0.220694 -0.000770 -0.017659
  3C   1pz       -0.183310 -0.068318  0.159228 -0.173212 -0.000369  0.034349
  3C   1px       -0.064034  0.123608  0.006438  0.126201  0.004649  0.250488
  3C   1py        0.030751 -0.092797  0.008070 -0.102998  0.005776 -0.174625
  4C   1s        -0.422747 -0.197556 -0.096682  0.259901 -0.000067 -0.073672
  4C   1pz       -0.029344 -0.059210  0.088025  0.235465  0.000479  0.005877
  4C   1px        0.010130 -0.082114 -0.028649  0.084436 -0.003014 -0.278762
  4C   1py       -0.009275  0.053487  0.027220 -0.041308 -0.003297  0.198021
  5C   1s         0.238716 -0.079505 -0.055645 -0.046798 -0.000526 -0.278574
  5C   1pz       -0.098331 -0.253174 -0.149241  0.006883 -0.001805  0.140047
  5C   1px        0.119249 -0.030249  0.024805 -0.185129  0.011951  0.021639
  5C   1py       -0.092493  0.001801 -0.029244  0.131692  0.017633 -0.004187
  6C   1s         0.093666  0.275013  0.155282 -0.011345 -0.000072 -0.208768
  6C   1pz        0.152940 -0.125616 -0.011459 -0.023701  0.004477 -0.215926
  6C   1px       -0.077809  0.055826  0.006016  0.015813 -0.046446  0.050518
  6C   1py        0.067151 -0.049637 -0.005269 -0.012895 -0.066398 -0.052333
  7C   1s        -0.333336  0.308778  0.074489  0.006139 -0.000107 -0.031601
  7C   1pz        0.028861  0.134843  0.069043 -0.021724 -0.047236 -0.471610
  7C   1px        0.007950 -0.190764 -0.101556  0.011452  0.406424  0.072266
  7C   1py       -0.003182  0.144899  0.077332 -0.010804  0.574129 -0.090798
  8O   1s        -0.028736 -0.063639 -0.035134  0.006845  0.000041  0.060885
  8O   1pz       -0.000022  0.093820  0.042403 -0.008132 -0.001037 -0.032293
  8O   1px        0.048407  0.071541  0.046232 -0.002650  0.011389 -0.113505
  8O   1py       -0.034417 -0.043482 -0.029529  0.001206  0.016452  0.077957
  9H   1s        -0.126320  0.083593 -0.471580 -0.077728 -0.000168 -0.060768
 10H   1s         0.253104  0.183240 -0.358801  0.247572  0.000323 -0.007328
 11H   1s        -0.080662  0.170406 -0.256560 -0.377081 -0.000110  0.019920
 12H   1s         0.002591  0.342659 -0.064584  0.298834  0.001311  0.189623
 13H   1s         0.290113  0.257864  0.021603 -0.328672  0.000388  0.275975
 14H   1s         0.199377 -0.252210 -0.079850 -0.011611  0.500021 -0.047276
 15H   1s         0.200392 -0.251856 -0.079838 -0.011005 -0.495378 -0.049627
 16H   1s         0.134910 -0.240986 -0.081424  0.021514 -0.003521  0.432273
                     36        37        38        39        40        41
                   0.25130   0.30033   0.32053   0.35215   0.40818   0.42464
                   0.00000   0.00000   0.00000   0.00000   0.00000   0.00000
                  --------  --------  --------  --------  --------  --------
  0C   1s         0.028025 -0.096469 -0.022129 -0.123103 -0.043507  0.058043
  0C   1pz       -0.028831 -0.479981 -0.080456 -0.353434 -0.105672  0.118746
  0C   1px        0.006098  0.003242 -0.122869  0.009276 -0.214884 -0.335712
  0C   1py       -0.006626 -0.040315  0.080667 -0.034561  0.143852  0.247207
  1C   1s         0.018451  0.097817 -0.085522  0.011586 -0.105202 -0.037002
  1C   1pz       -0.005141  0.226827 -0.268022 -0.189554 -0.167944  0.352191
  1C   1px       -0.041305  0.331980 -0.210500  0.144199 -0.159949 -0.236265
  1C   1py        0.028930 -0.217137  0.127835 -0.117171  0.099974  0.195250
  2C   1s         0.005611  0.076585  0.103086 -0.010697  0.065645  0.101818
  2C   1pz        0.039717  0.148703  0.248895 -0.241900 -0.104958  0.022805
  2C   1px        0.017653 -0.270977 -0.286300 -0.105359 -0.203590 -0.197239
  2C   1py       -0.009384  0.203696  0.222474  0.055499  0.135895  0.141508
  3C   1s        -0.011018 -0.063406  0.102706  0.101272 -0.056568 -0.094107
  3C   1pz        0.006361  0.199477 -0.249255 -0.163657 -0.268777  0.267730
  3C   1px        0.172088 -0.115318  0.239092  0.165810 -0.259364 -0.059303
  3C   1py       -0.121653  0.097450 -0.189096 -0.130378  0.162442  0.063254
  4C   1s        -0.021894 -0.036088 -0.088140  0.101083  0.106259  0.041206
  4C   1pz        0.005845  0.148000  0.269284 -0.226815 -0.010677  0.123850
  4C   1px       -0.144032  0.063569  0.267048 -0.169572 -0.246128 -0.134051
  4C   1py        0.102578 -0.033347 -0.167955  0.102226  0.173565  0.104764
  5C   1s        -0.170728 -0.037609  0.006935  0.027589  0.042876 -0.060818
  5C   1pz        0.083852 -0.098767  0.011679  0.381238 -0.057572  0.159365
  5C   1px       -0.001257 -0.022183  0.132629  0.037944 -0.378610 -0.084739
  5C   1py        0.007500  0.008003 -0.093046  0.002970  0.263710  0.072536
  6C   1s        -0.139669 -0.023039 -0.006615 -0.014359  0.084022 -0.088277
  6C   1pz       -0.198561 -0.125613  0.012327  0.349511  0.039266  0.055453
  6C   1px        0.021994  0.035202 -0.015645 -0.162881  0.272800 -0.306455
  6C   1py       -0.031106 -0.034739  0.012017  0.142900 -0.190770  0.222096
  7C   1s         0.010366  0.010755 -0.004437 -0.050241  0.036171 -0.054584
  7C   1pz        0.412232 -0.035677 -0.033578  0.159041 -0.080878  0.147838
  7C   1px        0.416561  0.084280 -0.009979 -0.210605  0.105283 -0.162829
  7C   1py       -0.261639 -0.062827  0.004525  0.162288 -0.081209  0.127293
  8O   1s         0.047061  0.013238  0.003118  0.005761 -0.125533  0.127898
  8O   1pz       -0.025182 -0.002013  0.005565 -0.030572  0.110572 -0.127917
  8O   1px       -0.063146 -0.022081  0.000869  0.001841  0.161680 -0.167343
  8O   1py        0.043028  0.015523 -0.000163 -0.003667 -0.106323  0.108979
  9H   1s        -0.031703 -0.302625 -0.048017 -0.218877 -0.060115  0.076856
 10H   1s        -0.034673  0.290606 -0.219425  0.031931 -0.150557 -0.045984
 11H   1s         0.008084  0.236370  0.273969 -0.012767  0.100793  0.132575
 12H   1s         0.159636 -0.132682  0.235962  0.151962 -0.085831 -0.119531
 13H   1s         0.130293 -0.081774 -0.268009  0.173733  0.154505  0.055711
 14H   1s         0.290568  0.032107 -0.009599 -0.060421  0.032637 -0.043862
 15H   1s         0.296963  0.032618 -0.010091 -0.060838  0.033058 -0.044119
 16H   1s        -0.427023  0.017773  0.025495 -0.082300  0.022808 -0.053433
                     42        43
                   0.44900   0.47521
                   0.00000   0.00000
                  --------  --------
  0C   1s        -0.045160 -0.046530
  0C   1pz       -0.105580 -0.099459
  0C   1px       -0.288996  0.049243
  0C   1py        0.196349 -0.042755
  1C   1s        -0.029172 -0.051725
  1C   1pz        0.141238 -0.269911
  1C   1px       -0.126678  0.022055
  1C   1py        0.100923 -0.037023
  2C   1s        -0.034494 -0.025891
  2C   1pz       -0.476859 -0.100558
  2C   1px       -0.166770  0.009266
  2C   1py        0.080411 -0.014517
  3C   1s         0.011102 -0.015574
  3C   1pz        0.140285 -0.315538
  3C   1px        0.096816 -0.162699
  3C   1py       -0.057496  0.090308
  4C   1s         0.016133  0.015661
  4C   1pz       -0.480027 -0.090936
  4C   1px        0.176176 -0.000807
  4C   1py       -0.162766 -0.006628
  5C   1s         0.039555  0.018539
  5C   1pz       -0.200045 -0.376420
  5C   1px        0.273940 -0.129000
  5C   1py       -0.209774  0.061870
  6C   1s         0.030840 -0.063979
  6C   1pz       -0.163111 -0.425488
  6C   1px        0.091915 -0.356553
  6C   1py       -0.077998  0.220193
  7C   1s         0.032695 -0.019327
  7C   1pz       -0.078240  0.021536
  7C   1px        0.092088 -0.057851
  7C   1py       -0.071548  0.042646
  8O   1s        -0.014445  0.221696
  8O   1pz        0.019956 -0.198938
  8O   1px        0.018162 -0.292774
  8O   1py       -0.011356  0.192604
  9H   1s        -0.057312 -0.058383
 10H   1s        -0.036592 -0.057646
 11H   1s        -0.038878 -0.033437
 12H   1s         0.020682 -0.002947
 13H   1s         0.030926  0.043960
 14H   1s         0.021682 -0.023855
 15H   1s         0.021716 -0.024263
 16H   1s         0.033370  0.022169

MULLIKEN ATOMIC CHARGES
-----------------------
   0 C :   -0.056221
   1 C :   -0.071381
   2 C :   -0.069425
   3 C :   -0.064640
   4 C :   -0.037147
   5 C :    0.013032
   6 C :    0.470648
   7 C :   -0.127639
   8 O :   -0.709265
   9 H :    0.079344
  10 H :    0.076160
  11 H :    0.079606
  12 H :    0.076049
  13 H :    0.109302
  14 H :    0.073843
  15 H :    0.073495
  16 H :    0.084240
Sum of atomic charges:    0.0000000

LOEWDIN ATOMIC CHARGES
----------------------
   0 C :   -0.009572
   1 C :   -0.034934
   2 C :   -0.030811
   3 C :   -0.018550
   4 C :    0.010804
   5 C :    0.000310
   6 C :    0.401338
   7 C :   -0.027961
   8 O :   -0.612496
   9 H :    0.036935
  10 H :    0.034866
  11 H :    0.037302
  12 H :    0.035012
  13 H :    0.058477
  14 H :    0.039289
  15 H :    0.038898
  16 H :    0.041092

  Mayer bond orders larger than 0.100000
B(  0-C ,  1-C ) :   1.3856 B(  0-C ,  2-C ) :   1.3847 B(  0-C ,  5-C ) :   0.1069
B(  0-C ,  9-H ) :   0.9461 B(  1-C ,  3-C ) :   1.4022 B(  1-C ,  4-C ) :   0.1061
B(  1-C , 10-H ) :   0.9463 B(  2-C ,  3-C ) :   0.1104 B(  2-C ,  4-C ) :   1.4009
B(  2-C , 11-H ) :   0.9459 B(  3-C ,  5-C ) :   1.3521 B(  3-C , 12-H ) :   0.9444
B(  4-C ,  5-C ) :   1.3560 B(  4-C , 13-H ) :   0.9410 B(  5-C ,  6-C ) :   1.0312
B(  6-C ,  7-C ) :   0.9887 B(  6-C ,  8-O ) :   1.6072 B(  7-C , 14-H ) :   0.9514
B(  7-C , 15-H ) :   0.9517 B(  7-C , 16-H ) :   0.9665

-----------------------------------------------------------------------------
    TRANSIENT ABSORPTION SPECTRUM VIA TRANSITION ELECTRIC DIPOLE MOMENTS
-----------------------------------------------------------------------------
State   Energy  Wavelength   fosc         T2         TX        TY        TZ
        (cm-1)    (nm)                  (au**2)     (au)      (au)      (au)
-----------------------------------------------------------------------------
  20   63475.7    157.5   9.724107958   4.21856   0.78510  -0.67984   1.77200

FINAL SINGLE POINT ENERGY        -3.785379911817

DIPOLE MOMENT
-------------
                                X             Y             Z
Electronic contribution:     10.92182      -7.11130       8.08185
Nuclear contribution   :     -3.55407       2.68836       2.18801
                        -----------------------------------------
Total Dipole Moment    :      7.36775      -4.42294      10.26986
                        -----------------------------------------
Magnitude (a.u.)       :     13.39090
Magnitude (Debye)      :     34.03695

Rotational constants in cm-1:     0.124213     0.040879     0.030932
Rotational constants in MHz :  3723.813959  1225.510122   927.328298

                             ****ORCA TERMINATED NORMALLY****
TOTAL RUN TIME: 0 days 0 hours 0 minutes 0 seconds 772 msec
