                         Program Version 4.2.1 -  RELEASE  -
|  1> %output Print[P_OVERLAP] 1 Print[P_MOs] 1 end
|  2> %cis nroots 10 triplets false end
|  3> #!6-31G*
|  4> !zindo/s
|  5> #!sto-3g
|  6> *xyz 0 1
|  7> O         -2.72878        2.04053        4.17249
|  8> C         -1.81269        2.97859        3.70014
|  9> C         -1.03941        2.73827        2.62946
| 10> N         -1.13559        1.54066        1.96346
| 11> C         -2.02819        0.59292        2.40179
| 12> C         -2.79961        0.83726        3.47289
| 13> H         -1.81621        3.88047        4.29148
| 14> H         -0.31954        3.44871        2.24091
| 15> H         -2.06235       -0.33266        1.83962
| 16> H         -3.52857        0.16519        3.89721
| 17> H         -0.55283        1.35780        1.15563
| 18> *
| 19>
| 20>
| 21>                          ****END OF INPUT****

CARTESIAN COORDINATES (ANGSTROEM)
---------------------------------
  O     -2.728780    2.040530    4.172490
  C     -1.812690    2.978590    3.700140
  C     -1.039410    2.738270    2.629460
  N     -1.135590    1.540660    1.963460
  C     -2.028190    0.592920    2.401790
  C     -2.799610    0.837260    3.472890
  H     -1.816210    3.880470    4.291480
  H     -0.319540    3.448710    2.240910
  H     -2.062350   -0.332660    1.839620
  H     -3.528570    0.165190    3.897210
  H     -0.552830    1.357800    1.155630

 Total Charge           Charge          ....    0
 Multiplicity           Mult            ....    1
 Number of Electrons    NEL             ....   32
 Basis Dimension        Dim             ....   29

ORBITAL ENERGIES
----------------

  NO   OCC          E(Eh)            E(eV)
   0   2.0000      -1.770099       -48.1668
   1   2.0000      -1.487375       -40.4735
   2   2.0000      -1.216647       -33.1067
   3   2.0000      -1.050252       -28.5788
   4   2.0000      -0.999471       -27.1970
   5   2.0000      -0.890752       -24.2386
   6   2.0000      -0.780310       -21.2333
   7   2.0000      -0.675770       -18.3886
   8   2.0000      -0.611972       -16.6526
   9   2.0000      -0.580733       -15.8025
  10   2.0000      -0.575774       -15.6676
  11   2.0000      -0.539575       -14.6826
  12   2.0000      -0.490310       -13.3420
  13   2.0000      -0.473513       -12.8849
  14   2.0000      -0.364385        -9.9154
  15   2.0000      -0.276017        -7.5108
  16   0.0000       0.034068         0.9270
  17   0.0000       0.063488         1.7276
  18   0.0000       0.110324         3.0021
  19   0.0000       0.128652         3.5008
  20   0.0000       0.165765         4.5107

------------------
MOLECULAR ORBITALS
------------------
                      0         1         2         3         4         5
                  -1.77010  -1.48738  -1.21665  -1.05025  -0.99947  -0.89075
                   2.00000   2.00000   2.00000   2.00000   2.00000   2.00000
                  --------  --------  --------  --------  --------  --------
  0O   1s        -0.505555 -0.542670  0.000002 -0.326625  0.000002 -0.128231
  0O   1pz        0.133681  0.074208 -0.019528 -0.022422  0.044615 -0.170663
  0O   1px       -0.096417 -0.053525 -0.084806  0.016173  0.193750  0.123085
  0O   1py        0.030250  0.016790 -0.184004 -0.005069  0.420383 -0.038613
  1C   1s        -0.325871 -0.146098 -0.401890  0.272547  0.298161 -0.116213
  1C   1pz        0.035400 -0.119937  0.067236 -0.162523  0.179943 -0.157452
  1C   1px        0.061329  0.146877 -0.070672  0.199715 -0.151379 -0.002255
  1C   1py        0.165749  0.082499 -0.025063  0.113040  0.001492 -0.245932
  2C   1s        -0.303148  0.242795 -0.434322  0.255879 -0.258617 -0.030353
  2C   1pz       -0.020391 -0.121744 -0.060537  0.206641  0.158091  0.060796
  2C   1px        0.087871  0.029790  0.021466 -0.075998 -0.104134 -0.191033
  2C   1py        0.128251 -0.132905 -0.054008  0.179399  0.053718 -0.253508
  3N   1s        -0.392711  0.547318 -0.000008 -0.330777  0.000003 -0.046903
  3N   1pz       -0.095345  0.016332 -0.024746  0.161049 -0.034643  0.370198
  3N   1px        0.068756 -0.011763 -0.107484 -0.116173 -0.150433 -0.267022
  3N   1py       -0.021571  0.003687 -0.233204  0.036451 -0.326400  0.083778
  4C   1s        -0.303149  0.242801  0.434322  0.255877  0.258613 -0.030352
  4C   1pz       -0.049285 -0.098831  0.051777  0.177794 -0.154195  0.118915
  4C   1px       -0.037617  0.129294 -0.059541 -0.201268  0.121087  0.061400
  4C   1py       -0.144019  0.082991 -0.028594 -0.092403 -0.016948  0.294187
  5C   1s        -0.325871 -0.146089  0.401896  0.272537 -0.298165 -0.116219
  5C   1pz        0.001099 -0.143782 -0.075996 -0.195105 -0.188470 -0.111720
  5C   1px       -0.087651  0.043327  0.032631  0.058219  0.114327  0.196375
  5C   1py       -0.157490 -0.142174 -0.057474 -0.193965 -0.081877  0.185029
  6H   1s        -0.078220 -0.062471 -0.185973  0.143811  0.207070 -0.237756
  7H   1s        -0.072667  0.100818 -0.209962  0.123873 -0.184416 -0.217602
  8H   1s        -0.072668  0.100822  0.209962  0.123872  0.184419 -0.217601
  9H   1s        -0.078219 -0.062469  0.185973  0.143801 -0.207070 -0.237760
 10H   1s        -0.121253  0.236399 -0.000005 -0.267064  0.000004 -0.322706
                      6         7         8         9        10        11
                  -0.78031  -0.67577  -0.61197  -0.58073  -0.57577  -0.53957
                   2.00000   2.00000   2.00000   2.00000   2.00000   2.00000
                  --------  --------  --------  --------  --------  --------
  0O   1s         0.000000  0.235014  0.193131 -0.000036 -0.000002  0.000000
  0O   1pz       -0.045477  0.047335  0.407715 -0.407141  0.008546  0.032709
  0O   1px       -0.197501 -0.034154 -0.294149 -0.481204  0.037059  0.142013
  0O   1py       -0.428522  0.010719  0.092294  0.264994  0.080390  0.308133
  1C   1s         0.067817 -0.230893 -0.058531  0.000019  0.078095 -0.075446
  1C   1pz       -0.185863 -0.091443  0.144991 -0.196658 -0.266190 -0.088876
  1C   1px        0.256141 -0.023694 -0.003254 -0.232475  0.088633 -0.082296
  1C   1py        0.179651 -0.183462  0.216927  0.127985 -0.247917 -0.285961
  2C   1s        -0.005107  0.219615  0.034752 -0.000012  0.066131  0.076602
  2C   1pz        0.267007 -0.110869 -0.180177 -0.171460  0.226825  0.056672
  2C   1px       -0.087762  0.201847  0.067090 -0.202769 -0.290605  0.113471
  2C   1py        0.250740  0.196274 -0.154754  0.111674 -0.179325  0.293092
  3N   1s         0.000001 -0.182904  0.056706  0.000017  0.000004  0.000003
  3N   1pz       -0.043615  0.067589  0.382828 -0.229327  0.013078 -0.035314
  3N   1px       -0.189416 -0.048773 -0.276238 -0.270976  0.056724 -0.153393
  3N   1py       -0.410977  0.015305  0.086691  0.149230  0.123080 -0.332812
  4C   1s         0.005105  0.219610  0.034757 -0.000015 -0.066132 -0.076603
  4C   1pz       -0.225618 -0.159016 -0.155367 -0.171477 -0.276985  0.004278
  4C   1px        0.267517 -0.007214  0.174767 -0.202784  0.072780  0.151243
  4C   1py        0.139274 -0.257340  0.078899  0.111628 -0.293328  0.281249
  5C   1s        -0.067816 -0.230894 -0.058529  0.000016 -0.078092  0.075447
  5C   1pz        0.234079 -0.056038  0.104943 -0.196643  0.225393  0.031065
  5C   1px       -0.046742  0.130034 -0.177103 -0.232463 -0.265899 -0.168797
  5C   1py        0.274683  0.150092 -0.160301  0.128029 -0.136701 -0.258832
  6H   1s         0.073014 -0.284781  0.185482 -0.000027 -0.264700 -0.303200
  7H   1s         0.007506  0.352679  0.011256 -0.000012 -0.313037  0.268708
  8H   1s        -0.007506  0.352682  0.011245 -0.000002  0.313031 -0.268711
  9H   1s        -0.073010 -0.284770  0.185461 -0.000014  0.264723  0.303209
 10H   1s         0.000001 -0.135233 -0.362663  0.000055 -0.000011 -0.000004
                     12        13        14        15        16        17
                  -0.49031  -0.47351  -0.36439  -0.27602   0.03407   0.06349
                   2.00000   2.00000   2.00000   2.00000   0.00000   0.00000
                  --------  --------  --------  --------  --------  --------
  0O   1s        -0.000079 -0.270786  0.000000 -0.000003  0.000000 -0.000003
  0O   1pz        0.355954 -0.518633  0.000002  0.223722 -0.000003  0.108851
  0O   1px        0.421117  0.373895  0.000002  0.264497 -0.000002  0.128686
  0O   1py       -0.231865 -0.117285  0.000002 -0.145647  0.000004 -0.070863
  1C   1s         0.000015  0.034306 -0.000001  0.000002 -0.000003  0.000010
  1C   1pz        0.019444  0.239056  0.294643 -0.258865  0.300643 -0.266738
  1C   1px        0.022879 -0.195106  0.348350 -0.306054  0.355443 -0.315356
  1C   1py       -0.012633  0.012885 -0.191830  0.168536 -0.195735  0.173658
  2C   1s        -0.000013 -0.024084  0.000004  0.000003 -0.000002 -0.000009
  2C   1pz       -0.170147 -0.216255  0.300641 -0.183338 -0.294650  0.291969
  2C   1px       -0.201074  0.168541  0.355434 -0.216746 -0.348358  0.345184
  2C   1py        0.110755 -0.026299 -0.195735  0.119352  0.191835 -0.190078
  3N   1s         0.000036 -0.000996 -0.000000 -0.000030 -0.000000  0.000027
  3N   1pz       -0.411078  0.142548  0.000008  0.321141  0.000002 -0.172533
  3N   1px       -0.485980 -0.102621  0.000011  0.379633  0.000003 -0.203956
  3N   1py        0.267610  0.032168 -0.000000 -0.209051 -0.000002  0.112312
  4C   1s        -0.000013 -0.024082 -0.000003  0.000003  0.000002 -0.000009
  4C   1pz       -0.170154 -0.221180 -0.300645 -0.183328  0.294646  0.291977
  4C   1px       -0.201096  0.147122 -0.355448 -0.216734  0.348357  0.345193
  4C   1py        0.110716 -0.072760  0.195716  0.119348 -0.191815 -0.190082
  5C   1s         0.000015  0.034310 -0.000000  0.000001  0.000001  0.000009
  5C   1pz        0.019443  0.248013 -0.294653 -0.258859 -0.300639 -0.266746
  5C   1px        0.022891 -0.156180 -0.348365 -0.306049 -0.355441 -0.315368
  5C   1py       -0.012589  0.097335  0.191820  0.168522  0.195718  0.173654
  6H   1s         0.000028  0.155539 -0.000001  0.000001  0.000002 -0.000009
  7H   1s         0.000037  0.161133 -0.000005  0.000001  0.000002  0.000004
  8H   1s         0.000037  0.161126  0.000004  0.000001 -0.000002  0.000004
  9H   1s         0.000028  0.155537  0.000001  0.000001  0.000000 -0.000008
 10H   1s        -0.000035 -0.161092  0.000000  0.000022  0.000000 -0.000027
                     18        19        20        21        22        23
                   0.11032   0.12865   0.16576   0.20283   0.21220   0.28332
                   0.00000   0.00000   0.00000   0.00000   0.00000   0.00000
                  --------  --------  --------  --------  --------  --------
  0O   1s         0.142254 -0.000000  0.202506 -0.036489 -0.000004  0.278783
  0O   1pz       -0.159016  0.018391 -0.170430  0.071530 -0.017780 -0.270871
  0O   1px        0.114690  0.079875  0.122923 -0.051590 -0.077221  0.195358
  0O   1py       -0.035992  0.173304 -0.038566  0.016182 -0.167544 -0.061307
  1C   1s        -0.364263 -0.390814 -0.287564 -0.048047  0.248336  0.000047
  1C   1pz        0.040660  0.056864 -0.155323 -0.081479  0.182000  0.046290
  1C   1px       -0.004392 -0.051886  0.141043  0.003950 -0.080754  0.217360
  1C   1py        0.054511 -0.006873  0.017559 -0.117965  0.132896  0.465815
  2C   1s         0.389009  0.393463 -0.213113 -0.129951  0.226168 -0.025360
  2C   1pz        0.025884  0.071096  0.209514 -0.017203 -0.181741  0.009122
  2C   1px       -0.034054 -0.023454 -0.120209 -0.127858  0.200390 -0.069158
  2C   1py       -0.022114  0.066616  0.103528 -0.258634  0.084756 -0.111580
  3N   1s        -0.263084 -0.000013  0.368909 -0.392394  0.000015 -0.088129
  3N   1pz       -0.066101 -0.018802 -0.001335  0.184258 -0.017756  0.092964
  3N   1px        0.047644 -0.081644  0.000999 -0.132961 -0.077076 -0.067065
  3N   1py       -0.014941 -0.177147 -0.000325  0.041720 -0.167245  0.021043
  4C   1s         0.389026 -0.393436 -0.213132 -0.129972 -0.226160 -0.025361
  4C   1pz        0.031970 -0.060113  0.197310  0.038206  0.209108  0.033851
  4C   1px       -0.007646  0.071181 -0.173209  0.112729 -0.081509  0.038172
  4C   1py        0.035193  0.036927 -0.011464  0.263388  0.173175  0.121316
  5C   1s        -0.364284  0.390808 -0.287551 -0.048062 -0.248323  0.000034
  5C   1pz        0.030807 -0.061147 -0.166790 -0.059849 -0.162049 -0.052730
  5C   1px       -0.047176  0.033230  0.091270  0.097972  0.167374 -0.212714
  5C   1py       -0.038326 -0.033581 -0.090449  0.086004  0.055049 -0.467304
  6H   1s         0.243307  0.257171  0.266259  0.183584 -0.324330 -0.303062
  7H   1s        -0.266451 -0.269706  0.213842  0.304440 -0.331733  0.072334
  8H   1s        -0.266461  0.269684  0.213856  0.304465  0.331708  0.072348
  9H   1s         0.243322 -0.257172  0.266252  0.183612  0.324316 -0.303072
 10H   1s         0.146853  0.000007 -0.246979  0.532789 -0.000021  0.150912
                     24        25        26        27        28
                   0.32897   0.33809   0.43590   0.43777   0.49051
                   0.00000   0.00000   0.00000   0.00000   0.00000
                  --------  --------  --------  --------  --------
  0O   1s        -0.073570  0.000010  0.123413 -0.000013 -0.000002
  0O   1pz        0.068653  0.012483 -0.091851  0.042672 -0.031483
  0O   1px       -0.049514  0.054260  0.066280  0.185276 -0.136734
  0O   1py        0.015539  0.117712 -0.020727  0.402010 -0.296670
  1C   1s        -0.026364 -0.095424  0.091506 -0.096311 -0.020283
  1C   1pz        0.153208  0.258931 -0.333754 -0.071865  0.253020
  1C   1px       -0.113209 -0.031454  0.261678  0.235443 -0.280204
  1C   1py        0.029742  0.340594 -0.037447  0.317172 -0.120200
  2C   1s         0.121030  0.114398 -0.061673 -0.122688 -0.010976
  2C   1pz        0.074782  0.184698 -0.345098  0.065792  0.302762
  2C   1px       -0.239253 -0.276247  0.183906  0.105808 -0.088076
  2C   1py       -0.319594 -0.217954 -0.196101  0.293194  0.305095
  3N   1s        -0.097683  0.000003 -0.146112  0.000022  0.000001
  3N   1pz       -0.425490 -0.013185 -0.254018  0.038402  0.041910
  3N   1px        0.306902 -0.057336  0.183241  0.166587  0.182017
  3N   1py       -0.096298 -0.124376 -0.057433  0.361511  0.394921
  4C   1s         0.121024 -0.114405 -0.061639  0.122706  0.010975
  4C   1pz        0.147950 -0.241189 -0.319439 -0.005173 -0.251312
  4C   1px        0.078584  0.030912  0.295412  0.156958  0.311523
  4C   1py        0.369990 -0.314350  0.045808  0.277105  0.179719
  5C   1s        -0.026360  0.095428  0.091539  0.096282  0.020285
  5C   1pz        0.154268 -0.197611 -0.341994  0.144475 -0.291610
  5C   1px       -0.108538  0.297790  0.225742  0.079405  0.112603
  5C   1py        0.039853  0.237263 -0.115365  0.366130 -0.243440
  6H   1s        -0.059331 -0.259585  0.117923 -0.126210 -0.023947
  7H   1s         0.227778  0.224750 -0.069679 -0.135007 -0.011660
  8H   1s         0.227765 -0.224763 -0.069642  0.135027  0.011659
  9H   1s        -0.059314  0.259568  0.117962  0.126168  0.023949
 10H   1s        -0.383901  0.000014 -0.203971  0.000030 -0.000000

MULLIKEN ATOMIC CHARGES
-----------------------
   0 O :   -0.488957
   1 C :    0.091040
   2 C :    0.058043
   3 N :   -0.409999
   4 C :    0.058047
   5 C :    0.091041
   6 H :    0.101923
   7 H :    0.087616
   8 H :    0.087617
   9 H :    0.101919
  10 H :    0.221712
Sum of atomic charges:   -0.0000000

LOEWDIN ATOMIC CHARGES
----------------------
   0 O :   -0.365464
   1 C :    0.071204
   2 C :    0.046729
   3 N :   -0.232075
   4 C :    0.046732
   5 C :    0.071205
   6 H :    0.056564
   7 H :    0.046084
   8 H :    0.046085
   9 H :    0.056562
  10 H :    0.156374

  Mayer bond orders larger than 0.100000
B(  0-O ,  1-C ) :   0.9267 B(  0-O ,  5-C ) :   0.9267 B(  1-C ,  2-C ) :   1.8295
B(  1-C ,  6-H ) :   0.9428 B(  2-C ,  3-N ) :   1.0089 B(  2-C ,  7-H ) :   0.9475
B(  3-N ,  4-C ) :   1.0089 B(  3-N , 10-H ) :   0.9120 B(  4-C ,  5-C ) :   1.8295
B(  4-C ,  8-H ) :   0.9475 B(  5-C ,  9-H ) :   0.9428

-----------------------------------------------------------------------------
         ABSORPTION SPECTRUM VIA TRANSITION ELECTRIC DIPOLE MOMENTS
-----------------------------------------------------------------------------
State   Energy    Wavelength  fosc         T2        TX        TY        TZ
        (cm-1)      (nm)                 (au**2)    (au)      (au)      (au)
-----------------------------------------------------------------------------
   1   30013.5    333.2   0.010676470   0.11711   0.14257   0.30936   0.03284
   2   40888.6    244.6   0.096494251   0.77692  -0.50712   0.15911   0.70315
   3   42162.5    237.2   0.000114480   0.00089   0.02097  -0.01156   0.01790
   4   45198.1    221.2   0.000000000   0.00000  -0.00000  -0.00001   0.00000
   5   53696.7    186.2   0.002179989   0.01337  -0.08141   0.04482  -0.06877
   6   55057.4    181.6   0.503036803   3.00787  -0.99785   0.31306   1.38354
   7   57633.6    173.5   0.003823161   0.02184   0.06153   0.13360   0.01424
   8   61800.9    161.8   0.000159628   0.00085  -0.02053   0.01130  -0.01736
   9   61817.6    161.8   0.000000001   0.00000   0.00004  -0.00002   0.00004
  10   64183.6    155.8   0.000000000   0.00000  -0.00001  -0.00002   0.00000

FINAL SINGLE POINT ENERGY        -7.795976979967

DIPOLE MOMENT
-------------
                                X             Y             Z
Electronic contribution:     -4.04062       1.26780       5.60190
Nuclear contribution   :      1.18885      -0.37303      -1.64807
                        -----------------------------------------
Total Dipole Moment    :     -2.85177       0.89477       3.95382
                        -----------------------------------------
Magnitude (a.u.)       :      4.95640
Magnitude (Debye)      :     12.59817

Rotational constants in cm-1:     0.198673     0.183920     0.095506
Rotational constants in MHz :  5956.052965  5513.781482  2863.195167

                             ****ORCA TERMINATED NORMALLY****
TOTAL RUN TIME: 0 days 0 hours 0 minutes 0 seconds 315 msec
