                         Program Version 4.2.1 -  RELEASE  -
|  1> !zindo/s tightscf
|  2> %output Print[P_OVERLAP] 1 end
|  3> # %cis nroots 20 dotrans all donto true triplets true end
|  4> *xyz 0 1
|  5>   C   1.82868189498644     -1.12568448671555     -0.11668508576230
|  6>   C   0.86073330841555     -0.38750890026130      0.54700557220456
|  7>   C   2.82457707278590     -1.77413785804051      0.60333732140804
|  8>   C   0.88748656122741     -0.29675789586408      1.93081821192431
|  9>   C   2.85051088582409     -1.68337170150631      1.98337718013689
| 10>   C   1.88183259800218     -0.94380310813381      2.65779697676493
| 11>   C   1.95012783005334     -0.87542052659737      4.15436663216222
| 12>   C   0.90161026641721     -0.07366951716518      4.88772760132817
| 13>   O   2.82617692482010     -1.45104219459857      4.75837980334316
| 14>   H   1.80813085503021     -1.19657204492586     -1.19477572316912
| 15>   H   0.08569654239513      0.11716212974510     -0.01115396027159
| 16>   H   3.57875121772189     -2.34921084889001      0.08595121337892
| 17>   H   0.12925020320207      0.28032533530661      2.43853666479911
| 18>   H   3.61421515995847     -2.17883879290430      2.56371628941295
| 19>   H   -0.09247172191325     -0.47103053572633      4.68627203668800
| 20>   H   0.91342593248451      0.96467512277121      4.55915523024135
| 21>   H   1.10576446858875     -0.12361417649373      5.95157403541037
| 22> *
| 23>
| 24>                          ****END OF INPUT****

CARTESIAN COORDINATES (ANGSTROEM)
---------------------------------
  C      1.828682   -1.125684   -0.116685
  C      0.860733   -0.387509    0.547006
  C      2.824577   -1.774138    0.603337
  C      0.887487   -0.296758    1.930818
  C      2.850511   -1.683372    1.983377
  C      1.881833   -0.943803    2.657797
  C      1.950128   -0.875421    4.154367
  C      0.901610   -0.073670    4.887728
  O      2.826177   -1.451042    4.758380
  H      1.808131   -1.196572   -1.194776
  H      0.085697    0.117162   -0.011154
  H      3.578751   -2.349211    0.085951
  H      0.129250    0.280325    2.438537
  H      3.614215   -2.178839    2.563716
  H     -0.092472   -0.471031    4.686272
  H      0.913426    0.964675    4.559155
  H      1.105764   -0.123614    5.951574

 Total Charge           Charge          ....    0
 Multiplicity           Mult            ....    1
 Number of Electrons    NEL             ....   46
 Basis Dimension        Dim             ....   44

ORBITAL ENERGIES
----------------

  NO   OCC          E(Eh)            E(eV)
   0   2.0000      -1.675073       -45.5810
   1   2.0000      -1.579753       -42.9873
   2   2.0000      -1.312670       -35.7196
   3   2.0000      -1.237603       -33.6769
   4   2.0000      -1.194018       -32.4909
   5   2.0000      -0.985828       -26.8257
   6   2.0000      -0.942647       -25.6507
   7   2.0000      -0.903656       -24.5897
   8   2.0000      -0.748395       -20.3649
   9   2.0000      -0.682255       -18.5651
  10   2.0000      -0.658370       -17.9152
  11   2.0000      -0.645713       -17.5708
  12   2.0000      -0.625037       -17.0081
  13   2.0000      -0.580549       -15.7975
  14   2.0000      -0.571917       -15.5626
  15   2.0000      -0.533266       -14.5109
  16   2.0000      -0.521793       -14.1987
  17   2.0000      -0.479369       -13.0443
  18   2.0000      -0.475415       -12.9367
  19   2.0000      -0.466150       -12.6846
  20   2.0000      -0.383032       -10.4228
  21   2.0000      -0.350872        -9.5477
  22   2.0000      -0.349342        -9.5061
  23   0.0000      -0.021356        -0.5811
  24   0.0000       0.015017         0.4086
  25   0.0000       0.044975         1.2238
  26   0.0000       0.082616         2.2481
  27   0.0000       0.104066         2.8318

MULLIKEN ATOMIC CHARGES
-----------------------
   0 C :   -0.056226
   1 C :   -0.071376
   2 C :   -0.069426
   3 C :   -0.064640
   4 C :   -0.037150
   5 C :    0.013036
   6 C :    0.470644
   7 C :   -0.127641
   8 O :   -0.709261
   9 H :    0.079344
  10 H :    0.076160
  11 H :    0.079607
  12 H :    0.076048
  13 H :    0.109300
  14 H :    0.073844
  15 H :    0.073496
  16 H :    0.084240
Sum of atomic charges:   -0.0000000

LOEWDIN ATOMIC CHARGES
----------------------
   0 C :   -0.009577
   1 C :   -0.034928
   2 C :   -0.030809
   3 C :   -0.018552
   4 C :    0.010800
   5 C :    0.000314
   6 C :    0.401336
   7 C :   -0.027963
   8 O :   -0.612493
   9 H :    0.036935
  10 H :    0.034866
  11 H :    0.037302
  12 H :    0.035011
  13 H :    0.058476
  14 H :    0.039290
  15 H :    0.038899
  16 H :    0.041092

  Mayer bond orders larger than 0.100000
B(  0-C ,  1-C ) :   1.3856 B(  0-C ,  2-C ) :   1.3846 B(  0-C ,  5-C ) :   0.1069
B(  0-C ,  9-H ) :   0.9461 B(  1-C ,  3-C ) :   1.4022 B(  1-C ,  4-C ) :   0.1061
B(  1-C , 10-H ) :   0.9463 B(  2-C ,  3-C ) :   0.1104 B(  2-C ,  4-C ) :   1.4009
B(  2-C , 11-H ) :   0.9459 B(  3-C ,  5-C ) :   1.3521 B(  3-C , 12-H ) :   0.9444
B(  4-C ,  5-C ) :   1.3560 B(  4-C , 13-H ) :   0.9410 B(  5-C ,  6-C ) :   1.0312
B(  6-C ,  7-C ) :   0.9887 B(  6-C ,  8-O ) :   1.6072 B(  7-C , 14-H ) :   0.9514
B(  7-C , 15-H ) :   0.9517 B(  7-C , 16-H ) :   0.9665

FINAL SINGLE POINT ENERGY        -3.914007159725

DIPOLE MOMENT
-------------
                                X             Y             Z
Electronic contribution:     10.92181      -7.11129       8.08188
Nuclear contribution   :     -3.55407       2.68836       2.18801
                        -----------------------------------------
Total Dipole Moment    :      7.36775      -4.42293      10.26988
                        -----------------------------------------
Magnitude (a.u.)       :     13.39091
Magnitude (Debye)      :     34.03699

Rotational constants in cm-1:     0.124213     0.040879     0.030932
Rotational constants in MHz :  3723.813959  1225.510122   927.328298

                             ****ORCA TERMINATED NORMALLY****
TOTAL RUN TIME: 0 days 0 hours 0 minutes 0 seconds 259 msec
