                               Psi4 1.4a2.dev1058

  ==> Input File <==

--------------------------------------------------------------------------
#! Single point energies of multiple excited states with EOM-CCSD

molecule ch4 {
 C    0.0  0.0  0.0
 H    0.0  0.0  1.0
 H    0.0  0.5 -1.0
 H   -0.5 -0.4  1.0
 H   0.5  0.4  -1.0
}

set {
  reference rhf
  basis cc-pVDZ
  num_roots 8
  opdm True
  tdm True
  roots_per_irrep [8]
  print 1
}

ci_energy, ci_wfn = energy('ci1', return_wfn=True)

basis = ci_wfn.basisset()
basis.print_detail_out()

overlap = ci_wfn.S()
overlap.print_out()

mo_alpha = ci_wfn.Ca()
mo_alpha.print_out()

mo_beta = ci_wfn.Cb()
mo_beta.print_out()

opdm_a = ci_wfn.get_opdm(1, 1, "A", True)
opdm_a.print_out()

opdm_b = ci_wfn.get_opdm(1, 1, "B", True)
opdm_b.print_out()

np_opdm_a = np.array(opdm_a)
eigvals, eigvecs = np.linalg.eigh(np_opdm_a)
eigvals = eigvals[::-1]
eigvecs = eigvecs[:, ::-1]
print('Occupation numbers (alpha):')
print(eigvals)

nat_orbs_a = np.dot(ci_wfn.Ca(), eigvecs)
print('Natural orbitals (alpha):')
print(nat_orbs_a)

np_opdm_b = np.array(opdm_b)
eigvals, eigvecs = np.linalg.eigh(np_opdm_b)
eigvals = eigvals[::-1]
eigvecs = eigvecs[:, ::-1]
print('Occupation numbers (beta):')
print(eigvals)

nat_orbs_b = np.dot(ci_wfn.Cb(), eigvecs)
print('Natural orbitals (beta):')
print(nat_orbs_b)

energy('eom-ccsd', return_wfn=True)
--------------------------------------------------------------------------

    Molecular point group: c1
  Charge       = 0
  Multiplicity = 1
  Basis Set: CC-PVDZ
    Blend: CC-PVDZ
  @RHF Final Energy:   -39.55934554217067
    Total Energy =                        -39.5593455421706679
    Molecular point group: c1

    Geometry (in Angstrom), charge = 0, multiplicity = 1:

       Center              X                  Y                   Z               Mass
    ------------   -----------------  -----------------  -----------------  -----------------
         C           -0.000000000000    -0.031433041117     0.000000000000    12.000000000000
         H           -0.000000000000    -0.031433041117     1.000000000000     1.007825032230
         H           -0.000000000000     0.468566958883    -1.000000000000     1.007825032230
         H           -0.500000000000    -0.431433041117     1.000000000000     1.007825032230
         H            0.500000000000     0.368566958883    -1.000000000000     1.007825032230

  Charge       = 0
  Multiplicity = 1
  Basis Set: CC-PVDZ
    Blend: CC-PVDZ

    Orbital Energies [Eh]
    ---------------------

    Doubly Occupied:

       1A    -11.242959     2A     -1.071416     3A     -0.939683
       4A     -0.343641     5A     -0.312759

  @RHF Final Energy:   -39.55934554217069

   => Energetics <=

    Nuclear Repulsion Energy =             14.1936848514692304
    One-Electron Energy =                 -79.6851440645930040
    Two-Electron Energy =                  25.9321136709530862
    Total Energy =                        -39.5593455421706892

  Dipole Moment: [D]
     X:    -0.1654      Y:     1.2032      Z:     0.1788     Total:     1.2276

      * MP2 total energy                      =  -39.745479519818140
      * CCSD total energy                     =  -39.773068373183946
*** Psi4 exiting successfully. Buy a developer a beer!
